MODEL 1
REMARK VINA RESULT:      -5.2      0.000      0.000
REMARK SMILES OCCOCCn1nncc1Cc1ccccc1
REMARK SMILES IDX 4 1 3 2 2 3 1 4 5 6 6 7 7 8 8 9 11 10 9 11 10 12 12 13 13 14
REMARK SMILES IDX 14 15 18 16 15 17 17 18 16 19
REMARK H PARENT 1 5
ROOT
ATOM      1  O   UNL     1      28.396  28.059  37.133  1.00  0.00    -0.377 OA
ENDROOT
BRANCH   1   2
ATOM      2  C   UNL     1      28.810  28.728  38.278  1.00  0.00    +0.188 C 
BRANCH   2   3
ATOM      3  C   UNL     1      27.598  29.332  38.944  1.00  0.00    +0.184 C 
BRANCH   3   4
ATOM      4  O   UNL     1      27.984  30.473  39.651  1.00  0.00    -0.394 OA
ATOM      5  H   UNL     1      28.166  30.235  40.615  1.00  0.00    +0.210 HD
ENDBRANCH   3   4
ENDBRANCH   2   3
ENDBRANCH   1   2
BRANCH   1   6
ATOM      6  C   UNL     1      28.776  28.748  35.972  1.00  0.00    +0.184 C 
BRANCH   6   7
ATOM      7  C   UNL     1      29.772  27.951  35.145  1.00  0.00    +0.175 C 
BRANCH   7   8
ATOM      8  N   UNL     1      29.131  27.667  33.885  1.00  0.00    -0.247 N 
ATOM      9  N   UNL     1      27.832  27.810  33.638  1.00  0.00    -0.067 NA
ATOM     10  C   UNL     1      29.749  27.224  32.779  1.00  0.00    +0.063 A 
ATOM     11  N   UNL     1      27.574  27.472  32.397  1.00  0.00    -0.139 NA
ATOM     12  C   UNL     1      28.734  27.104  31.832  1.00  0.00    +0.161 A 
BRANCH  10  13
ATOM     13  C   UNL     1      31.155  26.900  32.507  1.00  0.00    +0.093 C 
BRANCH  13  14
ATOM     14  C   UNL     1      31.941  28.025  32.002  1.00  0.00    -0.042 A 
ATOM     15  C   UNL     1      31.468  29.264  31.680  1.00  0.00    +0.004 A 
ATOM     16  C   UNL     1      33.313  27.820  31.835  1.00  0.00    +0.004 A 
ATOM     17  C   UNL     1      32.272  30.286  31.209  1.00  0.00    +0.000 A 
ATOM     18  C   UNL     1      34.121  28.844  31.362  1.00  0.00    +0.000 A 
ATOM     19  C   UNL     1      33.626  30.092  31.040  1.00  0.00    +0.000 A 
ENDBRANCH  13  14
ENDBRANCH  10  13
ENDBRANCH   7   8
ENDBRANCH   6   7
ENDBRANCH   1   6
TORSDOF 8
ENDMDL
