MODEL 1
REMARK VINA RESULT:      -5.2      0.000      0.000
REMARK SMILES NCc1cnnn1Cc1ccccc1
REMARK SMILES IDX 4 1 5 2 6 3 7 4 3 5 2 6 1 7 8 10 9 11 10 12 14 13 11 14
REMARK SMILES IDX 13 15 12 16
REMARK H PARENT 1 8 1 9
ROOT
ATOM      1  C   UNL     1      43.887  41.129  80.899  1.00  0.00    +0.162 A 
ATOM      2  N   UNL     1      44.098  40.199  79.961  1.00  0.00    -0.139 NA
ATOM      3  N   UNL     1      44.196  39.038  80.561  1.00  0.00    -0.067 NA
ATOM      4  N   UNL     1      44.052  39.203  81.859  1.00  0.00    -0.244 N 
ATOM      5  C   UNL     1      43.856  40.511  82.109  1.00  0.00    +0.073 A 
ENDROOT
BRANCH   5   6
ATOM      6  C   UNL     1      43.643  41.205  83.401  1.00  0.00    +0.135 C 
BRANCH   6   7
ATOM      7  N   UNL     1      43.015  42.480  83.303  1.00  0.00    -0.325 NA
ATOM      8  H   UNL     1      42.337  42.691  84.063  1.00  0.00    +0.119 HD
ATOM      9  H   UNL     1      42.697  42.743  82.363  1.00  0.00    +0.119 HD
ENDBRANCH   6   7
ENDBRANCH   5   6
BRANCH   4  10
ATOM     10  C   UNL     1      44.103  38.151  82.821  1.00  0.00    +0.182 C 
BRANCH  10  11
ATOM     11  C   UNL     1      42.846  37.454  83.089  1.00  0.00    -0.026 A 
ATOM     12  C   UNL     1      42.025  37.947  84.090  1.00  0.00    +0.005 A 
ATOM     13  C   UNL     1      42.401  36.333  82.419  1.00  0.00    +0.005 A 
ATOM     14  C   UNL     1      40.819  37.347  84.404  1.00  0.00    +0.000 A 
ATOM     15  C   UNL     1      41.211  35.702  82.696  1.00  0.00    +0.000 A 
ATOM     16  C   UNL     1      40.430  36.234  83.703  1.00  0.00    +0.000 A 
ENDBRANCH  10  11
ENDBRANCH   4  10
TORSDOF 4
ENDMDL
