REMARK SMILES Cc1cnnn1CCOCCO
REMARK SMILES IDX 9 1 10 2 11 3 12 4 8 6 7 7 6 8 5 9 2 10 4 11 3 12 1 13
REMARK H PARENT 12 5
ROOT
ATOM      1  O   UNL     1       1.522   0.241   1.322  1.00  0.00    -0.377 OA
ENDROOT
BRANCH   1   2
ATOM      2  C   UNL     1       2.414  -0.710   0.919  1.00  0.00    +0.188 C 
BRANCH   2   3
ATOM      3  C   UNL     1       3.206  -0.390  -0.310  1.00  0.00    +0.184 C 
BRANCH   3   4
ATOM      4  O   UNL     1       3.956   0.782  -0.093  1.00  0.00    -0.394 OA
ATOM      5  H   UNL     1       4.806   0.524   0.379  1.00  0.00    +0.210 HD
ENDBRANCH   3   4
ENDBRANCH   2   3
ENDBRANCH   1   2
BRANCH   1   6
ATOM      6  C   UNL     1       0.542   0.565   0.425  1.00  0.00    +0.184 C 
BRANCH   6   7
ATOM      7  C   UNL     1      -0.349  -0.574   0.017  1.00  0.00    +0.174 C 
BRANCH   7   8
ATOM      8  N   UNL     1      -1.374  -0.162  -0.942  1.00  0.00    -0.247 N 
ATOM      9  N   UNL     1      -1.240  -0.179  -2.259  1.00  0.00    -0.067 NA
ATOM     10  C   UNL     1      -2.588   0.289  -0.654  1.00  0.00    +0.056 A 
ATOM     11  N   UNL     1      -2.364   0.260  -2.830  1.00  0.00    -0.139 NA
ATOM     12  C   UNL     1      -3.231   0.563  -1.861  1.00  0.00    +0.160 A 
ATOM     13  C   UNL     1      -3.161   0.471   0.703  1.00  0.00    +0.068 C 
ENDBRANCH   7   8
ENDBRANCH   6   7
ENDBRANCH   1   6
TORSDOF 6
