REMARK SMILES Cc1cnnn1Cc1ccccc1
REMARK SMILES IDX 3 1 4 2 5 3 6 4 2 5 1 6 7 7 8 8 9 9 13 10 10 11 12 12 11 13
REMARK H PARENT
ROOT
ATOM      1  C   UNL     1       3.097  -0.889  -0.933  1.00  0.00    +0.160 A 
ATOM      2  N   UNL     1       2.710  -2.120  -0.491  1.00  0.00    -0.139 NA
ATOM      3  N   UNL     1       1.683  -1.923   0.326  1.00  0.00    -0.067 NA
ATOM      4  N   UNL     1       1.387  -0.640   0.435  1.00  0.00    -0.245 N 
ATOM      5  C   UNL     1       2.247   0.049  -0.336  1.00  0.00    +0.056 A 
ATOM      6  C   UNL     1       2.268   1.516  -0.503  1.00  0.00    +0.068 C 
ENDROOT
BRANCH   4   7
ATOM      7  C   UNL     1       0.303  -0.156   1.269  1.00  0.00    +0.181 C 
BRANCH   7   8
ATOM      8  C   UNL     1      -0.953  -0.106   0.451  1.00  0.00    -0.026 A 
ATOM      9  C   UNL     1      -1.261   1.048  -0.240  1.00  0.00    +0.005 A 
ATOM     10  C   UNL     1      -1.735  -1.232   0.440  1.00  0.00    +0.005 A 
ATOM     11  C   UNL     1      -2.430   1.068  -0.989  1.00  0.00    +0.000 A 
ATOM     12  C   UNL     1      -2.913  -1.213  -0.315  1.00  0.00    +0.000 A 
ATOM     13  C   UNL     1      -3.237  -0.060  -1.016  1.00  0.00    +0.000 A 
ENDBRANCH   7   8
ENDBRANCH   4   7
TORSDOF 2
