MODEL 1
REMARK VINA RESULT:      -5.3      0.000      0.000
REMARK SMILES OCCOCCn1nncc1Cc1ccccc1
REMARK SMILES IDX 4 1 3 2 2 3 1 4 5 6 6 7 7 8 8 9 11 10 9 11 10 12 12 13 13 14
REMARK SMILES IDX 14 15 18 16 15 17 17 18 16 19
REMARK H PARENT 1 5
ROOT
ATOM      1  O   UNL     1      43.584  41.150  82.786  1.00  0.00    -0.377 OA
ENDROOT
BRANCH   1   2
ATOM      2  C   UNL     1      43.108  41.041  81.485  1.00  0.00    +0.188 C 
BRANCH   2   3
ATOM      3  C   UNL     1      44.285  40.854  80.560  1.00  0.00    +0.184 C 
BRANCH   3   4
ATOM      4  O   UNL     1      44.672  42.098  80.054  1.00  0.00    -0.394 OA
ATOM      5  H   UNL     1      45.191  41.974  79.198  1.00  0.00    +0.210 HD
ENDBRANCH   3   4
ENDBRANCH   2   3
ENDBRANCH   1   2
BRANCH   1   6
ATOM      6  C   UNL     1      44.071  39.922  83.256  1.00  0.00    +0.184 C 
BRANCH   6   7
ATOM      7  C   UNL     1      43.469  39.555  84.603  1.00  0.00    +0.175 C 
BRANCH   7   8
ATOM      8  N   UNL     1      42.226  38.878  84.332  1.00  0.00    -0.247 N 
ATOM      9  N   UNL     1      41.033  39.462  84.273  1.00  0.00    -0.067 NA
ATOM     10  C   UNL     1      42.091  37.564  84.094  1.00  0.00    +0.063 A 
ATOM     11  N   UNL     1      40.111  38.568  84.002  1.00  0.00    -0.139 NA
ATOM     12  C   UNL     1      40.726  37.381  83.884  1.00  0.00    +0.161 A 
BRANCH  10  13
ATOM     13  C   UNL     1      43.073  36.473  84.043  1.00  0.00    +0.093 C 
BRANCH  13  14
ATOM     14  C   UNL     1      43.921  36.486  82.853  1.00  0.00    -0.042 A 
ATOM     15  C   UNL     1      43.669  37.145  81.685  1.00  0.00    +0.004 A 
ATOM     16  C   UNL     1      45.112  35.755  82.910  1.00  0.00    +0.004 A 
ATOM     17  C   UNL     1      44.520  37.116  80.595  1.00  0.00    +0.000 A 
ATOM     18  C   UNL     1      45.967  35.724  81.818  1.00  0.00    +0.000 A 
ATOM     19  C   UNL     1      45.696  36.398  80.643  1.00  0.00    +0.000 A 
ENDBRANCH  13  14
ENDBRANCH  10  13
ENDBRANCH   7   8
ENDBRANCH   6   7
ENDBRANCH   1   6
TORSDOF 8
ENDMDL
