REMARK SMILES OCCOCCn1nncc1Cc1ccccc1
REMARK SMILES IDX 4 1 3 2 2 3 1 4 5 6 6 7 7 8 8 9 11 10 9 11 10 12 12 13 13 14
REMARK SMILES IDX 14 15 18 16 15 17 17 18 16 19
REMARK H PARENT 1 5
ROOT
ATOM      1  O   UNL     1       3.041  -0.259  -0.675  1.00  0.00    -0.377 OA
ENDROOT
BRANCH   1   2
ATOM      2  C   UNL     1       4.207   0.198  -0.073  1.00  0.00    +0.188 C 
BRANCH   2   3
ATOM      3  C   UNL     1       5.134   0.705  -1.150  1.00  0.00    +0.184 C 
BRANCH   3   4
ATOM      4  O   UNL     1       4.509   1.747  -1.840  1.00  0.00    -0.394 OA
ATOM      5  H   UNL     1       4.635   2.614  -1.340  1.00  0.00    +0.210 HD
ENDBRANCH   3   4
ENDBRANCH   2   3
ENDBRANCH   1   2
BRANCH   1   6
ATOM      6  C   UNL     1       2.133  -0.747   0.275  1.00  0.00    +0.184 C 
BRANCH   6   7
ATOM      7  C   UNL     1       0.853  -1.249  -0.374  1.00  0.00    +0.175 C 
BRANCH   7   8
ATOM      8  N   UNL     1       0.005  -1.721   0.692  1.00  0.00    -0.247 N 
ATOM      9  N   UNL     1      -0.005  -2.962   1.170  1.00  0.00    -0.067 NA
ATOM     10  C   UNL     1      -0.892  -0.979   1.360  1.00  0.00    +0.063 A 
ATOM     11  N   UNL     1      -0.886  -3.061   2.137  1.00  0.00    -0.139 NA
ATOM     12  C   UNL     1      -1.456  -1.855   2.285  1.00  0.00    +0.161 A 
BRANCH  10  13
ATOM     13  C   UNL     1      -1.282   0.431   1.236  1.00  0.00    +0.093 C 
BRANCH  13  14
ATOM     14  C   UNL     1      -2.432   0.659   0.362  1.00  0.00    -0.042 A 
ATOM     15  C   UNL     1      -2.392   0.943  -0.972  1.00  0.00    +0.004 A 
ATOM     16  C   UNL     1      -3.701   0.576   0.943  1.00  0.00    +0.004 A 
ATOM     17  C   UNL     1      -3.524   1.145  -1.741  1.00  0.00    +0.000 A 
ATOM     18  C   UNL     1      -4.837   0.779   0.174  1.00  0.00    +0.000 A 
ATOM     19  C   UNL     1      -4.779   1.066  -1.176  1.00  0.00    +0.000 A 
ENDBRANCH  13  14
ENDBRANCH  10  13
ENDBRANCH   7   8
ENDBRANCH   6   7
ENDBRANCH   1   6
TORSDOF 8
