MODEL 1
REMARK VINA RESULT:      -2.3      0.000      0.000
REMARK SMILES CCO
REMARK SMILES IDX 1 1 2 2 3 3
REMARK H PARENT 3 4
ROOT
ATOM      1  C   UNL     1      44.211  39.783  80.502  1.00  0.00    +0.034 C 
ATOM      2  C   UNL     1      43.706  41.160  80.165  1.00  0.00    +0.152 C 
ENDROOT
BRANCH   2   3
ATOM      3  O   UNL     1      44.776  42.020  80.044  1.00  0.00    -0.397 OA
ATOM      4  H   UNL     1      45.139  42.363  80.883  1.00  0.00    +0.210 HD
ENDBRANCH   2   3
TORSDOF 1
ENDMDL
