MODEL 1
REMARK VINA RESULT:      -5.2      0.000      0.000
REMARK SMILES Cc1cnnn1Cc1ccccc1
REMARK SMILES IDX 3 1 4 2 5 3 6 4 2 5 1 6 7 7 8 8 9 9 13 10 10 11 12 12 11 13
REMARK H PARENT
ROOT
ATOM      1  C   UNL     1      32.437  28.757  31.910  1.00  0.00    +0.160 A 
ATOM      2  N   UNL     1      31.388  29.560  31.571  1.00  0.00    -0.139 NA
ATOM      3  N   UNL     1      30.289  28.941  31.983  1.00  0.00    -0.067 NA
ATOM      4  N   UNL     1      30.569  27.789  32.567  1.00  0.00    -0.245 N 
ATOM      5  C   UNL     1      31.904  27.629  32.545  1.00  0.00    +0.056 A 
ATOM      6  C   UNL     1      32.642  26.473  33.093  1.00  0.00    +0.068 C 
ENDROOT
BRANCH   4   7
ATOM      7  C   UNL     1      29.543  26.917  33.107  1.00  0.00    +0.181 C 
BRANCH   7   8
ATOM      8  C   UNL     1      28.861  27.617  34.245  1.00  0.00    -0.026 A 
ATOM      9  C   UNL     1      27.538  27.983  34.114  1.00  0.00    +0.005 A 
ATOM     10  C   UNL     1      29.610  27.855  35.368  1.00  0.00    +0.005 A 
ATOM     11  C   UNL     1      26.931  28.630  35.182  1.00  0.00    +0.000 A 
ATOM     12  C   UNL     1      28.999  28.507  36.446  1.00  0.00    +0.000 A 
ATOM     13  C   UNL     1      27.668  28.882  36.330  1.00  0.00    +0.000 A 
ENDBRANCH   7   8
ENDBRANCH   4   7
TORSDOF 2
ENDMDL
