MODEL 1
REMARK VINA RESULT:      -3.9      0.000      0.000
REMARK SMILES NCc1cnnn1CCOCCO
REMARK SMILES IDX 9 1 10 2 11 3 12 4 13 5 8 7 7 8 6 9 3 10 5 11 4 12 2 13 1 14
REMARK H PARENT 13 6 1 15 1 16
ROOT
ATOM      1  C   UNL     1      46.135  36.465  79.097  1.00  0.00    +0.184 C 
ENDROOT
BRANCH   1   2
ATOM      2  O   UNL     1      46.203  35.340  78.310  1.00  0.00    -0.377 OA
BRANCH   2   3
ATOM      3  C   UNL     1      45.643  35.427  77.069  1.00  0.00    +0.188 C 
BRANCH   3   4
ATOM      4  C   UNL     1      45.829  36.803  76.490  1.00  0.00    +0.184 C 
BRANCH   4   5
ATOM      5  O   UNL     1      44.866  36.965  75.475  1.00  0.00    -0.394 OA
ATOM      6  H   UNL     1      44.105  36.380  75.712  1.00  0.00    +0.210 HD
ENDBRANCH   4   5
ENDBRANCH   3   4
ENDBRANCH   2   3
ENDBRANCH   1   2
BRANCH   1   7
ATOM      7  C   UNL     1      46.287  35.959  80.543  1.00  0.00    +0.175 C 
BRANCH   7   8
ATOM      8  N   UNL     1      45.348  36.730  81.337  1.00  0.00    -0.246 N 
ATOM      9  N   UNL     1      44.497  37.623  80.858  1.00  0.00    -0.067 NA
ATOM     10  C   UNL     1      45.203  36.653  82.671  1.00  0.00    +0.072 A 
ATOM     11  N   UNL     1      43.780  38.150  81.840  1.00  0.00    -0.139 NA
ATOM     12  C   UNL     1      44.213  37.551  82.985  1.00  0.00    +0.162 A 
BRANCH  10  13
ATOM     13  C   UNL     1      45.908  35.818  83.650  1.00  0.00    +0.135 C 
BRANCH  13  14
ATOM     14  N   UNL     1      46.926  36.607  84.322  1.00  0.00    -0.325 NA
ATOM     15  H   UNL     1      46.554  37.570  84.461  1.00  0.00    +0.119 HD
ATOM     16  H   UNL     1      47.789  36.611  83.753  1.00  0.00    +0.119 HD
ENDBRANCH  13  14
ENDBRANCH  10  13
ENDBRANCH   7   8
ENDBRANCH   1   7
TORSDOF 8
ENDMDL
