REMARK SMILES NCc1cnnn1CCOCCO
REMARK SMILES IDX 9 1 10 2 11 3 12 4 13 5 8 7 7 8 6 9 3 10 5 11 4 12 2 13 1 14
REMARK H PARENT 13 6 1 15 1 16
ROOT
ATOM      1  C   UNL     1       0.933   0.242  -0.504  1.00  0.00    +0.184 C 
ENDROOT
BRANCH   1   2
ATOM      2  O   UNL     1       1.507  -0.650   0.370  1.00  0.00    -0.377 OA
BRANCH   2   3
ATOM      3  C   UNL     1       2.552  -0.189   1.116  1.00  0.00    +0.188 C 
BRANCH   3   4
ATOM      4  C   UNL     1       3.685   0.261   0.235  1.00  0.00    +0.184 C 
BRANCH   4   5
ATOM      5  O   UNL     1       4.092  -0.852  -0.527  1.00  0.00    -0.394 OA
ATOM      6  H   UNL     1       4.786  -0.528  -1.151  1.00  0.00    +0.210 HD
ENDBRANCH   4   5
ENDBRANCH   3   4
ENDBRANCH   2   3
ENDBRANCH   1   2
BRANCH   1   7
ATOM      7  C   UNL     1      -0.207  -0.535  -1.187  1.00  0.00    +0.175 C 
BRANCH   7   8
ATOM      8  N   UNL     1      -1.105  -0.944  -0.123  1.00  0.00    -0.246 N 
ATOM      9  N   UNL     1      -1.019  -2.078   0.554  1.00  0.00    -0.067 NA
ATOM     10  C   UNL     1      -2.152  -0.236   0.333  1.00  0.00    +0.072 A 
ATOM     11  N   UNL     1      -1.987  -2.150   1.457  1.00  0.00    -0.139 NA
ATOM     12  C   UNL     1      -2.707  -1.000   1.330  1.00  0.00    +0.162 A 
BRANCH  10  13
ATOM     13  C   UNL     1      -2.660   1.075  -0.088  1.00  0.00    +0.135 C 
BRANCH  13  14
ATOM     14  N   UNL     1      -3.640   0.903  -1.146  1.00  0.00    -0.325 NA
ATOM     15  H   UNL     1      -4.494   1.442  -0.891  1.00  0.00    +0.119 HD
ATOM     16  H   UNL     1      -3.847  -0.103  -1.264  1.00  0.00    +0.119 HD
ENDBRANCH  13  14
ENDBRANCH  10  13
ENDBRANCH   7   8
ENDBRANCH   1   7
TORSDOF 8
