MODEL 1
REMARK VINA RESULT:      -5.2      0.000      0.000
REMARK SMILES NCc1cnnn1Cc1ccccc1
REMARK SMILES IDX 4 1 5 2 6 3 7 4 3 5 2 6 1 7 8 10 9 11 10 12 14 13 11 14
REMARK SMILES IDX 13 15 12 16
REMARK H PARENT 1 8 1 9
ROOT
ATOM      1  C   UNL     1      30.762  30.345  38.888  1.00  0.00    +0.162 A 
ATOM      2  N   UNL     1      29.548  30.262  39.443  1.00  0.00    -0.139 NA
ATOM      3  N   UNL     1      28.933  29.235  38.911  1.00  0.00    -0.067 NA
ATOM      4  N   UNL     1      29.725  28.659  38.031  1.00  0.00    -0.244 N 
ATOM      5  C   UNL     1      30.889  29.334  37.990  1.00  0.00    +0.073 A 
ENDROOT
BRANCH   5   6
ATOM      6  C   UNL     1      32.095  29.088  37.167  1.00  0.00    +0.135 C 
BRANCH   6   7
ATOM      7  N   UNL     1      33.331  29.413  37.798  1.00  0.00    -0.325 NA
ATOM      8  H   UNL     1      34.162  29.373  37.174  1.00  0.00    +0.119 HD
ATOM      9  H   UNL     1      33.473  28.999  38.726  1.00  0.00    +0.119 HD
ENDBRANCH   6   7
ENDBRANCH   5   6
BRANCH   4  10
ATOM     10  C   UNL     1      29.380  27.510  37.259  1.00  0.00    +0.182 C 
BRANCH  10  11
ATOM     11  C   UNL     1      28.746  27.761  35.966  1.00  0.00    -0.026 A 
ATOM     12  C   UNL     1      29.498  27.560  34.819  1.00  0.00    +0.005 A 
ATOM     13  C   UNL     1      27.446  28.185  35.787  1.00  0.00    +0.005 A 
ATOM     14  C   UNL     1      28.972  27.774  33.557  1.00  0.00    +0.000 A 
ATOM     15  C   UNL     1      26.880  28.410  34.554  1.00  0.00    +0.000 A 
ATOM     16  C   UNL     1      27.672  28.195  33.443  1.00  0.00    +0.000 A 
ENDBRANCH  10  11
ENDBRANCH   4  10
TORSDOF 4
ENDMDL
