REMARK SMILES NCc1cnnn1Cc1ccccc1
REMARK SMILES IDX 4 1 5 2 6 3 7 4 3 5 2 6 1 7 8 10 9 11 10 12 14 13 11 14
REMARK SMILES IDX 13 15 12 16
REMARK H PARENT 1 8 1 9
ROOT
ATOM      1  C   UNL     1       2.736  -1.752   0.412  1.00  0.00    +0.162 A 
ATOM      2  N   UNL     1       2.045  -2.635   1.141  1.00  0.00    -0.139 NA
ATOM      3  N   UNL     1       0.986  -2.025   1.613  1.00  0.00    -0.067 NA
ATOM      4  N   UNL     1       0.983  -0.774   1.203  1.00  0.00    -0.244 N 
ATOM      5  C   UNL     1       2.074  -0.566   0.442  1.00  0.00    +0.073 A 
ENDROOT
BRANCH   5   6
ATOM      6  C   UNL     1       2.524   0.665  -0.248  1.00  0.00    +0.135 C 
BRANCH   6   7
ATOM      7  N   UNL     1       2.048   0.815  -1.583  1.00  0.00    -0.325 NA
ATOM      8  H   UNL     1       1.526  -0.004  -1.954  1.00  0.00    +0.119 HD
ATOM      9  H   UNL     1       2.715   1.231  -2.243  1.00  0.00    +0.119 HD
ENDBRANCH   6   7
ENDBRANCH   5   6
BRANCH   4  10
ATOM     10  C   UNL     1      -0.023   0.184   1.528  1.00  0.00    +0.182 C 
BRANCH  10  11
ATOM     11  C   UNL     1      -1.160   0.269   0.613  1.00  0.00    -0.026 A 
ATOM     12  C   UNL     1      -2.249  -0.556   0.845  1.00  0.00    +0.005 A 
ATOM     13  C   UNL     1      -1.243   1.113  -0.475  1.00  0.00    +0.005 A 
ATOM     14  C   UNL     1      -3.365  -0.535   0.027  1.00  0.00    +0.000 A 
ATOM     15  C   UNL     1      -2.330   1.169  -1.315  1.00  0.00    +0.000 A 
ATOM     16  C   UNL     1      -3.389   0.326  -1.040  1.00  0.00    +0.000 A 
ENDBRANCH  10  11
ENDBRANCH   4  10
TORSDOF 4
