MODEL 1
REMARK VINA RESULT:      -4.5      0.000      0.000
REMARK SMILES Cc1cnnn1CCOCCO
REMARK SMILES IDX 9 1 10 2 11 3 12 4 8 6 7 7 6 8 5 9 2 10 4 11 3 12 1 13
REMARK H PARENT 12 5
ROOT
ATOM      1  O   UNL     1      43.715  40.035  82.128  1.00  0.00    -0.377 OA
ENDROOT
BRANCH   1   2
ATOM      2  C   UNL     1      44.222  39.849  80.874  1.00  0.00    +0.188 C 
BRANCH   2   3
ATOM      3  C   UNL     1      44.201  41.044  79.973  1.00  0.00    +0.184 C 
BRANCH   3   4
ATOM      4  O   UNL     1      45.232  41.930  80.344  1.00  0.00    -0.394 OA
ATOM      5  H   UNL     1      45.233  42.696  79.692  1.00  0.00    +0.210 HD
ENDBRANCH   3   4
ENDBRANCH   2   3
ENDBRANCH   1   2
BRANCH   1   6
ATOM      6  C   UNL     1      44.009  39.065  83.046  1.00  0.00    +0.184 C 
BRANCH   6   7
ATOM      7  C   UNL     1      43.336  37.742  82.812  1.00  0.00    +0.174 C 
BRANCH   7   8
ATOM      8  N   UNL     1      44.274  36.621  82.884  1.00  0.00    -0.247 N 
ATOM      9  N   UNL     1      45.249  36.383  82.021  1.00  0.00    -0.067 NA
ATOM     10  C   UNL     1      44.301  35.675  83.814  1.00  0.00    +0.056 A 
ATOM     11  N   UNL     1      45.911  35.282  82.386  1.00  0.00    -0.139 NA
ATOM     12  C   UNL     1      45.349  34.810  83.501  1.00  0.00    +0.160 A 
ATOM     13  C   UNL     1      43.384  35.554  84.975  1.00  0.00    +0.068 C 
ENDBRANCH   7   8
ENDBRANCH   6   7
ENDBRANCH   1   6
TORSDOF 6
ENDMDL
