MODEL 1
REMARK VINA RESULT:      -4.1      0.000      0.000
REMARK SMILES Cc1cnnn1CCOCCO
REMARK SMILES IDX 9 1 10 2 11 3 12 4 8 6 7 7 6 8 5 9 2 10 4 11 3 12 1 13
REMARK H PARENT 12 5
ROOT
ATOM      1  O   UNL     1      30.367  26.380  30.258  1.00  0.00    -0.377 OA
ENDROOT
BRANCH   1   2
ATOM      2  C   UNL     1      31.218  26.506  29.198  1.00  0.00    +0.188 C 
BRANCH   2   3
ATOM      3  C   UNL     1      32.098  27.717  29.202  1.00  0.00    +0.184 C 
BRANCH   3   4
ATOM      4  O   UNL     1      31.693  28.593  28.176  1.00  0.00    -0.394 OA
ATOM      5  H   UNL     1      30.927  28.165  27.685  1.00  0.00    +0.210 HD
ENDBRANCH   3   4
ENDBRANCH   2   3
ENDBRANCH   1   2
BRANCH   1   6
ATOM      6  C   UNL     1      30.554  27.261  31.287  1.00  0.00    +0.184 C 
BRANCH   6   7
ATOM      7  C   UNL     1      30.277  26.707  32.657  1.00  0.00    +0.174 C 
BRANCH   7   8
ATOM      8  N   UNL     1      29.137  27.361  33.300  1.00  0.00    -0.247 N 
ATOM      9  N   UNL     1      27.960  27.576  32.735  1.00  0.00    -0.067 NA
ATOM     10  C   UNL     1      29.097  27.838  34.537  1.00  0.00    +0.056 A 
ATOM     11  N   UNL     1      27.152  28.192  33.601  1.00  0.00    -0.139 NA
ATOM     12  C   UNL     1      27.826  28.374  34.739  1.00  0.00    +0.160 A 
ATOM     13  C   UNL     1      30.202  27.809  35.529  1.00  0.00    +0.068 C 
ENDBRANCH   7   8
ENDBRANCH   6   7
ENDBRANCH   1   6
TORSDOF 6
ENDMDL
