REMARK SMILES c1ccc(Cc2cnnn2Cc2ccccc2)cc1
REMARK SMILES IDX 7 1 8 2 9 3 10 4 6 5 5 6 4 7 3 8 18 9 2 10 19 11 1 12 11 13
REMARK SMILES IDX 12 14 13 15 17 16 14 17 16 18 15 19
REMARK H PARENT
ROOT
ATOM      1  C   UNL     1       0.551  -1.625   2.246  1.00  0.00    +0.161 A 
ATOM      2  N   UNL     1      -0.285  -2.658   2.050  1.00  0.00    -0.139 NA
ATOM      3  N   UNL     1      -0.962  -2.446   0.943  1.00  0.00    -0.067 NA
ATOM      4  N   UNL     1      -0.612  -1.290   0.369  1.00  0.00    -0.245 N 
ATOM      5  C   UNL     1       0.330  -0.762   1.166  1.00  0.00    +0.063 A 
ENDROOT
BRANCH   5   6
ATOM      6  C   UNL     1       1.061   0.502   1.009  1.00  0.00    +0.093 C 
BRANCH   6   7
ATOM      7  C   UNL     1       2.357   0.352   0.304  1.00  0.00    -0.042 A 
ATOM      8  C   UNL     1       3.498   0.035   1.032  1.00  0.00    +0.004 A 
ATOM      9  C   UNL     1       2.521   0.510  -1.051  1.00  0.00    +0.004 A 
ATOM     10  C   UNL     1       4.736  -0.117   0.447  1.00  0.00    +0.000 A 
ATOM     11  C   UNL     1       3.753   0.360  -1.648  1.00  0.00    +0.000 A 
ATOM     12  C   UNL     1       4.888   0.046  -0.929  1.00  0.00    +0.000 A 
ENDBRANCH   6   7
ENDBRANCH   5   6
BRANCH   4  13
ATOM     13  C   UNL     1      -1.203  -0.811  -0.848  1.00  0.00    +0.181 C 
BRANCH  13  14
ATOM     14  C   UNL     1      -2.409  -0.008  -0.573  1.00  0.00    -0.026 A 
ATOM     15  C   UNL     1      -3.607  -0.691  -0.426  1.00  0.00    +0.005 A 
ATOM     16  C   UNL     1      -2.448   1.349  -0.456  1.00  0.00    +0.005 A 
ATOM     17  C   UNL     1      -4.803  -0.042  -0.170  1.00  0.00    +0.000 A 
ATOM     18  C   UNL     1      -3.636   2.025  -0.199  1.00  0.00    +0.000 A 
ATOM     19  C   UNL     1      -4.821   1.331  -0.055  1.00  0.00    +0.000 A 
ENDBRANCH  13  14
ENDBRANCH   4  13
TORSDOF 4
