MODEL 1
REMARK VINA RESULT:      -2.3      0.000      0.000
REMARK SMILES CCO
REMARK SMILES IDX 3 1 2 3 1 4
REMARK H PARENT 3 2
ROOT
ATOM      1  O   UNL     1      44.689  42.163  79.963  1.00  0.00    -0.397 OA
ATOM      2  H   UNL     1      45.503  41.911  79.442  1.00  0.00    +0.210 HD
ENDROOT
BRANCH   1   3
ATOM      3  C   UNL     1      43.858  41.050  80.145  1.00  0.00    +0.152 C 
ATOM      4  C   UNL     1      43.749  40.831  81.624  1.00  0.00    +0.034 C 
ENDBRANCH   1   3
TORSDOF 1
ENDMDL
