REMARK SMILES CCO
REMARK SMILES IDX 3 1 2 3 1 4
REMARK H PARENT 3 2
ROOT
ATOM      1  O   UNL     1       1.274  -0.503  -0.613  1.00  0.00    -0.397 OA
ATOM      2  H   UNL     1       1.867  -0.926   0.070  1.00  0.00    +0.210 HD
ENDROOT
BRANCH   1   3
ATOM      3  C   UNL     1       0.440   0.451  -0.015  1.00  0.00    +0.152 C 
ATOM      4  C   UNL     1      -0.936  -0.142   0.024  1.00  0.00    +0.034 C 
ENDBRANCH   1   3
TORSDOF 1
