MODEL 1
REMARK VINA RESULT:      -3.7      0.000      0.000
REMARK SMILES c1ccccc1
REMARK SMILES IDX 3 1 2 2 1 3 6 4 5 5 4 6
REMARK H PARENT
ROOT
ATOM      1  C   UNL     1      44.228  34.380  75.507  1.00  0.00    +0.000 A 
ATOM      2  C   UNL     1      44.098  34.329  74.116  1.00  0.00    +0.000 A 
ATOM      3  C   UNL     1      44.533  35.384  73.365  1.00  0.00    +0.000 A 
ATOM      4  C   UNL     1      45.093  36.483  73.980  1.00  0.00    +0.000 A 
ATOM      5  C   UNL     1      45.237  36.570  75.338  1.00  0.00    +0.000 A 
ATOM      6  C   UNL     1      44.794  35.493  76.106  1.00  0.00    +0.000 A 
ENDROOT
TORSDOF 0
ENDMDL
