MODEL 1
REMARK VINA RESULT:      -3.7      0.000      0.000
REMARK SMILES Cc1cnnn1CCOCCO
REMARK SMILES IDX 9 1 10 2 11 3 12 4 8 6 7 7 6 8 5 9 2 10 4 11 3 12 1 13
REMARK H PARENT 12 5
ROOT
ATOM      1  O   UNL     1      30.722  26.074  30.019  1.00  0.00    -0.377 OA
ENDROOT
BRANCH   1   2
ATOM      2  C   UNL     1      30.679  26.569  28.748  1.00  0.00    +0.188 C 
BRANCH   2   3
ATOM      3  C   UNL     1      31.904  27.292  28.282  1.00  0.00    +0.184 C 
BRANCH   3   4
ATOM      4  O   UNL     1      31.644  28.676  28.240  1.00  0.00    -0.394 OA
ATOM      5  H   UNL     1      32.218  29.121  28.936  1.00  0.00    +0.210 HD
ENDBRANCH   3   4
ENDBRANCH   2   3
ENDBRANCH   1   2
BRANCH   1   6
ATOM      6  C   UNL     1      30.309  26.922  31.009  1.00  0.00    +0.184 C 
BRANCH   6   7
ATOM      7  C   UNL     1      31.371  27.312  31.997  1.00  0.00    +0.174 C 
BRANCH   7   8
ATOM      8  N   UNL     1      32.123  28.492  31.569  1.00  0.00    -0.247 N 
ATOM      9  N   UNL     1      31.592  29.660  31.243  1.00  0.00    -0.067 NA
ATOM     10  C   UNL     1      33.440  28.584  31.441  1.00  0.00    +0.056 A 
ATOM     11  N   UNL     1      32.560  30.513  30.902  1.00  0.00    -0.139 NA
ATOM     12  C   UNL     1      33.730  29.879  31.012  1.00  0.00    +0.160 A 
ATOM     13  C   UNL     1      34.428  27.508  31.704  1.00  0.00    +0.068 C 
ENDBRANCH   7   8
ENDBRANCH   6   7
ENDBRANCH   1   6
TORSDOF 6
ENDMDL
