MODEL 1
REMARK VINA RESULT:      -4.9      0.000      0.000
REMARK SMILES OCCOCCn1nncc1Cc1ccccc1
REMARK SMILES IDX 4 1 3 2 2 3 1 4 5 6 6 7 7 8 8 9 11 10 9 11 10 12 12 13 13 14
REMARK SMILES IDX 14 15 18 16 15 17 17 18 16 19
REMARK H PARENT 1 5
ROOT
ATOM      1  O   UNL     1      28.388  27.364  36.961  1.00  0.00    -0.377 OA
ENDROOT
BRANCH   1   2
ATOM      2  C   UNL     1      27.416  27.232  35.977  1.00  0.00    +0.188 C 
BRANCH   2   3
ATOM      3  C   UNL     1      27.301  28.544  35.239  1.00  0.00    +0.184 C 
BRANCH   3   4
ATOM      4  O   UNL     1      27.003  28.291  33.898  1.00  0.00    -0.394 OA
ATOM      5  H   UNL     1      26.654  29.130  33.460  1.00  0.00    +0.210 HD
ENDBRANCH   3   4
ENDBRANCH   2   3
ENDBRANCH   1   2
BRANCH   1   6
ATOM      6  C   UNL     1      29.408  28.238  36.558  1.00  0.00    +0.184 C 
BRANCH   6   7
ATOM      7  C   UNL     1      30.393  28.512  37.683  1.00  0.00    +0.175 C 
BRANCH   7   8
ATOM      8  N   UNL     1      30.987  29.797  37.409  1.00  0.00    -0.247 N 
ATOM      9  N   UNL     1      30.617  30.946  37.967  1.00  0.00    -0.067 NA
ATOM     10  C   UNL     1      32.001  30.021  36.559  1.00  0.00    +0.063 A 
ATOM     11  N   UNL     1      31.359  31.925  37.507  1.00  0.00    -0.139 NA
ATOM     12  C   UNL     1      32.228  31.393  36.634  1.00  0.00    +0.161 A 
BRANCH  10  13
ATOM     13  C   UNL     1      32.770  29.117  35.694  1.00  0.00    +0.093 C 
BRANCH  13  14
ATOM     14  C   UNL     1      32.531  29.310  34.265  1.00  0.00    -0.042 A 
ATOM     15  C   UNL     1      31.453  28.863  33.556  1.00  0.00    +0.004 A 
ATOM     16  C   UNL     1      33.495  30.024  33.547  1.00  0.00    +0.004 A 
ATOM     17  C   UNL     1      31.289  29.085  32.201  1.00  0.00    +0.000 A 
ATOM     18  C   UNL     1      33.333  30.246  32.188  1.00  0.00    +0.000 A 
ATOM     19  C   UNL     1      32.236  29.787  31.485  1.00  0.00    +0.000 A 
ENDBRANCH  13  14
ENDBRANCH  10  13
ENDBRANCH   7   8
ENDBRANCH   6   7
ENDBRANCH   1   6
TORSDOF 8
ENDMDL
